[
 {
  "formula": "Li1",
  "coords": [
   [
    0.0,
    0.0,
    0.0
   ]
  ],
  "lattice": [
   [
    2.64807009,
    0.0,
    1.52886398
   ],
   [
    0.88269003,
    2.49662443,
    1.52886398
   ],
   [
    0.0,
    0.0,
    3.05772796
   ]
  ],
  "elements": [
   "Li"
  ],
  "formation_energy": 0.0028601699999999397
 },
 {
  "formula": "Li8",
  "coords": [
   [
    0.48993636,
    0.5,
    1.0
   ],
   [
    0.0,
    0.48993636,
    0.5
   ],
   [
    0.5,
    1.0,
    0.98993636
   ],
   [
    0.0,
    0.98993636,
    0.5
   ],
   [
    0.98993636,
    0.5,
    1.0
   ],
   [
    0.5,
    1.0,
    0.48993636
   ],
   [
    0.01006364,
    0.01006364,
    0.01006364
   ],
   [
    0.51006364,
    0.51006364,
    0.51006364
   ]
  ],
  "lattice": [
   [
    5.61262304,
    1e-08,
    -1.98436243
   ],
   [
    -2.806312,
    4.86067432,
    -1.98436243
   ],
   [
    1e-08,
    2e-08,
    5.95308634
   ]
  ],
  "elements": [
   "Li",
   "Li",
   "Li",
   "Li",
   "Li",
   "Li",
   "Li",
   "Li"
  ],
  "formation_energy": 0.017122622500000073
 },
 {
  "formula": "Li3",
  "coords": [
   [
    0.77794608,
    0.77794608,
    0.66616175
   ],
   [
    0.22205392,
    0.22205392,
    0.33383825
   ],
   [
    0.0,
    0.0,
    0.0
   ]
  ],
  "lattice": [
   [
    -1.53188266,
    -2.65329881,
    0.0
   ],
   [
    -3.06376532,
    0.0,
    0.0
   ],
   [
    -1.53188266,
    -0.88443326,
    -7.42205852
   ]
  ],
  "elements": [
   "Li",
   "Li",
   "Li"
  ],
  "formation_energy": 0.000763073333333549
 },
 {
  "formula": "Li4",
  "coords": [
   [
    0.87497806,
    0.12502186,
    0.62502193
   ],
   [
    0.37497812,
    0.37497809,
    0.37497808
   ],
   [
    0.12502186,
    0.62502191,
    0.87497816
   ],
   [
    0.62502195,
    0.87497813,
    0.12502182
   ]
  ],
  "lattice": [
   [
    4.4575857,
    -1.1e-07,
    -2.2e-07
   ],
   [
    -8e-08,
    4.45758562,
    -3.1e-07
   ],
   [
    -2.8e-07,
    -2.9e-07,
    4.45758584
   ]
  ],
  "elements": [
   "Li",
   "Li",
   "Li",
   "Li"
  ],
  "formation_energy": 0.2753567400000001
 }
]